/*--------------------------------*- C++ -*----------------------------------*\
| =========                 |                                                 |
| \\      /  F ield         | OpenFOAM: The Open Source CFD Toolbox           |
|  \\    /   O peration     | Version:  2.1.0                                 |
|   \\  /    A nd           | Web:      www.OpenFOAM.org                      |
|    \\/     M anipulation  |                                                 |
\*---------------------------------------------------------------------------*/
FoamFile
{
    version     2.0;
    format      ascii;
    class       volScalarField;
    location    "10";
    object      spanavg_pMean;
}
// * * * * * * * * * * * * * * * * * * * * * * * * * * * * * * * * * * * * * //

dimensions      [0 2 -2 0 0 0 0];

internalField   nonuniform List<scalar>
30
(
1
2
3
4
5
6
7
8
9
10
1
2
3
4
5
6
7
8
9
10
1
2
3
4
5
6
7
8
9
10
)
;

boundaryField
{
    perio_x_half0
    {
        type            cyclic;
    }
    perio_x_half1
    {
        type            cyclic;
    }
    perio_y_half0
    {
        type            cyclic;
    }
    perio_y_half1
    {
        type            cyclic;
    }
    perio_z_half0
    {
        type            cyclic;
    }
    perio_z_half1
    {
        type            cyclic;
    }
}


// ************************************************************************* //
