/*--------------------------------*- C++ -*----------------------------------*\
| =========                 |                                                 |
| \\      /  F ield         | OpenFOAM: The Open Source CFD Toolbox           |
|  \\    /   O peration     | Version:  2.1.0                                 |
|   \\  /    A nd           | Web:      www.OpenFOAM.org                      |
|    \\/     M anipulation  |                                                 |
\*---------------------------------------------------------------------------*/
FoamFile
{
    version     2.0;
    format      ascii;
    class       volVectorField;
    location    "10";
    object      UMean;
}
// * * * * * * * * * * * * * * * * * * * * * * * * * * * * * * * * * * * * * //

dimensions      [0 1 -1 0 0 0 0];

internalField   nonuniform List<vector> 
30
(
(1 0 0)
(2 0 0)
(3 0 0)
(4 0 0)
(5 0 0)
(6 0 0)
(7 0 0)
(8 0 0)
(9 0 0)
(10 0 0)
(0 1 0)
(0 2 0)
(0 3 0)
(0 4 0)
(0 5 0)
(0 6 0)
(0 7 0)
(0 8 0)
(0 9 0)
(0 10 0)
(0 0 1)
(0 0 2)
(0 0 3)
(0 0 4)
(0 0 5)
(0 0 6)
(0 0 7)
(0 0 8)
(0 0 9)
(0 0 10)
)
;

boundaryField
{
    perio_x_half0
    {
        type            cyclic;
    }
    perio_x_half1
    {
        type            cyclic;
    }
    perio_y_half0
    {
        type            cyclic;
    }
    perio_y_half1
    {
        type            cyclic;
    }
    perio_z_half0
    {
        type            cyclic;
    }
    perio_z_half1
    {
        type            cyclic;
    }
}


// ************************************************************************* //
